# vtk DataFile Version 2.0
Gerris simulation version 1.3.2 (131206-155120)
ASCII
DATASET UNSTRUCTURED_GRID

POINTS 21670 float
-0.5 0.375 0
-0.375 0.375 0
-0.5 0.5 0
-0.375 0.5 0
-0.25 0.375 0
-0.25 0.5 0
-0.5 0.25 0
-0.375 0.25 0
-0.25 0.25 0
-0.125 0.375 0
-0.125 0.5 0
0 0.375 0
0 0.5 0
-0.125 0.25 0
0 0.25 0
-0.5 0.125 0
-0.375 0.125 0
-0.25 0.125 0
-0.5 0.0625 0
-0.4375 0.0625 0
-0.4375 0.125 0
-0.375 0.0625 0
-0.5 0.03125 0
-0.46875 0.03125 0
-0.46875 0.0625 0
-0.4375 0.03125 0
-0.5 0.015625 0
-0.484375 0.015625 0
-0.484375 0.03125 0
-0.46875 0.015625 0
-0.5 0 0
-0.484375 0 0
-0.46875 0 0
-0.453125 0.015625 0
-0.453125 0.03125 0
-0.4375 0.015625 0
-0.453125 0 0
-0.4375 0 0
-0.40625 0.03125 0
-0.40625 0.0625 0
-0.375 0.03125 0
-0.421875 0.015625 0
-0.421875 0.03125 0
-0.40625 0.015625 0
-0.421875 0 0
-0.40625 0 0
-0.390625 0.015625 0
-0.390625 0.03125 0
-0.375 0.015625 0
-0.390625 0 0
-0.375 0 0
-0.3125 0.0625 0
-0.3125 0.125 0
-0.25 0.0625 0
-0.34375 0.03125 0
-0.34375 0.0625 0
-0.3125 0.03125 0
-0.359375 0.015625 0
-0.359375 0.03125 0
-0.34375 0.015625 0
-0.359375 0 0
-0.34375 0 0
-0.328125 0.015625 0
-0.328125 0.03125 0
-0.3125 0.015625 0
-0.328125 0 0
-0.3125 0 0
-0.28125 0.03125 0
-0.28125 0.0625 0
-0.25 0.03125 0
-0.296875 0.015625 0
-0.296875 0.03125 0
-0.28125 0.015625 0
-0.296875 0 0
-0.28125 0 0
-0.265625 0.015625 0
-0.265625 0.03125 0
-0.25 0.015625 0
-0.265625 0 0
-0.25 0 0
-0.25 0.1875 0
-0.1875 0.1875 0
-0.1875 0.25 0
-0.125 0.1875 0
-0.1875 0.125 0
-0.125 0.125 0
-0.0625 0.1875 0
-0.0625 0.25 0
0 0.1875 0
-0.0625 0.125 0
-0.0625 0.15625 0
-0.03125 0.15625 0
-0.03125 0.1875 0
0 0.15625 0
-0.03125 0.125 0
0 0.125 0
-0.1875 0.0625 0
-0.1875 0.09375 0
-0.15625 0.09375 0
-0.15625 0.125 0
-0.125 0.09375 0
-0.15625 0.0625 0
-0.125 0.0625 0
-0.21875 0.03125 0
-0.21875 0.0625 0
-0.1875 0.03125 0
-0.234375 0.015625 0
-0.234375 0.03125 0
-0.21875 0.015625 0
-0.234375 0 0
-0.21875 0 0
-0.203125 0.015625 0
-0.203125 0.03125 0
-0.1875 0.015625 0
-0.203125 0 0
-0.1875 0 0
-0.15625 0.03125 0
-0.125 0.03125 0
-0.171875 0.015625 0
-0.171875 0.03125 0
-0.15625 0.015625 0
-0.171875 0 0
-0.15625 0 0
-0.140625 0.015625 0
-0.140625 0.03125 0
-0.125 0.015625 0
-0.140625 0 0
-0.125 0 0
-0.09375 0.09375 0
-0.09375 0.125 0
-0.0625 0.09375 0
-0.09375 0.0625 0
-0.0625 0.0625 0
-0.03125 0.09375 0
0 0.09375 0
-0.0625 0.078125 0
-0.046875 0.078125 0
-0.046875 0.09375 0
-0.03125 0.078125 0
-0.046875 0.0625 0
-0.03125 0.0625 0
-0.015625 0.078125 0
-0.015625 0.09375 0
0 0.078125 0
-0.015625 0.0625 0
0 0.0625 0
-0.125 0.046875 0
-0.109375 0.046875 0
-0.109375 0.0625 0
-0.09375 0.046875 0
-0.109375 0.03125 0
-0.09375 0.03125 0
-0.078125 0.046875 0
-0.078125 0.0625 0
-0.0625 0.046875 0
-0.078125 0.03125 0
-0.0625 0.03125 0
-0.109375 0.015625 0
-0.09375 0.015625 0
-0.109375 0 0
-0.09375 0 0
-0.078125 0.015625 0
-0.0625 0.015625 0
-0.078125 0 0
-0.0625 0 0
-0.046875 0.046875 0
-0.03125 0.046875 0
-0.046875 0.03125 0
-0.03125 0.03125 0
-0.015625 0.046875 0
0 0.046875 0
-0.046875 0.015625 0
-0.046875 0 0
0.125 0.375 0
0.125 0.5 0
0.25 0.375 0
0.25 0.5 0
0 0.3125 0
0.0625 0.3125 0
0.0625 0.375 0
0.125 0.3125 0
0.0625 0.25 0
0.125 0.25 0
0.25 0.25 0
0.375 0.375 0
0.375 0.5 0
0.5 0.375 0
0.5 0.5 0
0.25 0.3125 0
0.3125 0.3125 0
0.3125 0.375 0
0.375 0.3125 0
0.3125 0.25 0
0.375 0.25 0
0.4375 0.3125 0
0.4375 0.375 0
0.5 0.3125 0
0.4375 0.25 0
0.5 0.25 0
0.0625 0.1875 0
0.125 0.1875 0
0.03125 0.15625 0
0.03125 0.1875 0
0.0625 0.15625 0
0 0.140625 0
0.015625 0.140625 0
0.015625 0.15625 0
0.03125 0.140625 0
0.015625 0.125 0
0.03125 0.125 0
0.0625 0.125 0
0.09375 0.15625 0
0.09375 0.1875 0
0.125 0.15625 0
0.09375 0.125 0
0.125 0.125 0
0.1875 0.1875 0
0.1875 0.25 0
0.25 0.1875 0
0.15625 0.15625 0
0.15625 0.1875 0
0.1875 0.15625 0
0.15625 0.125 0
0.1875 0.125 0
0.21875 0.15625 0
0.21875 0.1875 0
0.25 0.15625 0
0.21875 0.125 0
0.25 0.125 0
0 0.109375 0
0.015625 0.109375 0
0.03125 0.109375 0
0.015625 0.09375 0
0.03125 0.09375 0
0.046875 0.109375 0
0.046875 0.125 0
0.0625 0.109375 0
0.046875 0.09375 0
0.0625 0.09375 0
0.015625 0.078125 0
0.03125 0.078125 0
0.015625 0.0625 0
0.03125 0.0625 0
0.046875 0.078125 0
0.0625 0.078125 0
0.046875 0.0625 0
0.0625 0.0625 0
0.078125 0.109375 0
0.078125 0.125 0
0.09375 0.109375 0
0.078125 0.09375 0
0.09375 0.09375 0
0.109375 0.109375 0
0.109375 0.125 0
0.125 0.109375 0
0.109375 0.09375 0
0.125 0.09375 0
0.078125 0.078125 0
0.09375 0.078125 0
0.078125 0.0625 0
0.09375 0.0625 0
0.109375 0.078125 0
0.125 0.078125 0
0.109375 0.0625 0
0.125 0.0625 0
0.015625 0.046875 0
0.03125 0.046875 0
0.046875 0.046875 0
0.0625 0.046875 0
0.03125 0.03125 0
0.046875 0.03125 0
0.0625 0.03125 0
0.046875 0.015625 0
0.0625 0.015625 0
0.046875 0 0
0.0625 0 0
0.078125 0.046875 0
0.09375 0.046875 0
0.078125 0.03125 0
0.09375 0.03125 0
0.109375 0.046875 0
0.125 0.046875 0
0.109375 0.03125 0
0.125 0.03125 0
0.078125 0.015625 0
0.09375 0.015625 0
0.078125 0 0
0.09375 0 0
0.109375 0.015625 0
0.125 0.015625 0
0.109375 0 0
0.125 0 0
0.140625 0.109375 0
0.140625 0.125 0
0.15625 0.109375 0
0.140625 0.09375 0
0.15625 0.09375 0
0.171875 0.109375 0
0.171875 0.125 0
0.1875 0.109375 0
0.171875 0.09375 0
0.1875 0.09375 0
0.140625 0.078125 0
0.15625 0.078125 0
0.140625 0.0625 0
0.15625 0.0625 0
0.171875 0.078125 0
0.1875 0.078125 0
0.171875 0.0625 0
0.1875 0.0625 0
0.203125 0.109375 0
0.203125 0.125 0
0.21875 0.109375 0
0.203125 0.09375 0
0.21875 0.09375 0
0.234375 0.109375 0
0.234375 0.125 0
0.25 0.109375 0
0.234375 0.09375 0
0.25 0.09375 0
0.203125 0.078125 0
0.21875 0.078125 0
0.203125 0.0625 0
0.21875 0.0625 0
0.234375 0.078125 0
0.25 0.078125 0
0.234375 0.0625 0
0.25 0.0625 0
0.140625 0.046875 0
0.15625 0.046875 0
0.140625 0.03125 0
0.15625 0.03125 0
0.171875 0.046875 0
0.1875 0.046875 0
0.171875 0.03125 0
0.1875 0.03125 0
0.140625 0.015625 0
0.15625 0.015625 0
0.140625 0 0
0.15625 0 0
0.171875 0.015625 0
0.1875 0.015625 0
0.171875 0 0
0.1875 0 0
0.203125 0.046875 0
0.21875 0.046875 0
0.203125 0.03125 0
0.21875 0.03125 0
0.234375 0.046875 0
0.25 0.046875 0
0.234375 0.03125 0
0.25 0.03125 0
0.203125 0.015625 0
0.21875 0.015625 0
0.203125 0 0
0.21875 0 0
0.234375 0.015625 0
0.25 0.015625 0
0.234375 0 0
0.25 0 0
0.3125 0.1875 0
0.375 0.1875 0
0.28125 0.15625 0
0.28125 0.1875 0
0.3125 0.15625 0
0.25 0.140625 0
0.265625 0.140625 0
0.265625 0.15625 0
0.28125 0.140625 0
0.265625 0.125 0
0.28125 0.125 0
0.296875 0.140625 0
0.296875 0.15625 0
0.3125 0.140625 0
0.296875 0.125 0
0.3125 0.125 0
0.34375 0.15625 0
0.34375 0.1875 0
0.375 0.15625 0
0.328125 0.140625 0
0.328125 0.15625 0
0.34375 0.140625 0
0.328125 0.125 0
0.34375 0.125 0
0.359375 0.140625 0
0.359375 0.15625 0
0.375 0.140625 0
0.359375 0.125 0
0.375 0.125 0
0.4375 0.1875 0
0.5 0.1875 0
0.40625 0.15625 0
0.40625 0.1875 0
0.4375 0.15625 0
0.390625 0.140625 0
0.390625 0.15625 0
0.40625 0.140625 0
0.390625 0.125 0
0.40625 0.125 0
0.4375 0.125 0
0.46875 0.15625 0
0.46875 0.1875 0
0.5 0.15625 0
0.46875 0.125 0
0.5 0.125 0
0.265625 0.109375 0
0.28125 0.109375 0
0.265625 0.09375 0
0.28125 0.09375 0
0.296875 0.109375 0
0.3125 0.109375 0
0.296875 0.09375 0
0.3125 0.09375 0
0.265625 0.078125 0
0.28125 0.078125 0
0.265625 0.0625 0
0.28125 0.0625 0
0.296875 0.078125 0
0.3125 0.078125 0
0.296875 0.0625 0
0.3125 0.0625 0
0.328125 0.109375 0
0.34375 0.109375 0
0.328125 0.09375 0
0.34375 0.09375 0
0.359375 0.109375 0
0.375 0.109375 0
0.359375 0.09375 0
0.375 0.09375 0
0.328125 0.078125 0
0.34375 0.078125 0
0.328125 0.0625 0
0.34375 0.0625 0
0.359375 0.078125 0
0.375 0.078125 0
0.359375 0.0625 0
0.375 0.0625 0
0.265625 0.046875 0
0.28125 0.046875 0
0.265625 0.03125 0
0.28125 0.03125 0
0.296875 0.046875 0
0.3125 0.046875 0
0.296875 0.03125 0
0.3125 0.03125 0
0.265625 0.015625 0
0.28125 0.015625 0
0.265625 0 0
0.28125 0 0
0.296875 0.015625 0
0.3125 0.015625 0
0.296875 0 0
0.3125 0 0
0.328125 0.046875 0
0.34375 0.046875 0
0.328125 0.03125 0
0.34375 0.03125 0
0.359375 0.046875 0
0.375 0.046875 0
0.359375 0.03125 0
0.375 0.03125 0
0.328125 0.015625 0
0.34375 0.015625 0
0.328125 0 0
0.34375 0 0
0.359375 0.015625 0
0.375 0.015625 0
0.359375 0 0
0.375 0 0
0.390625 0.109375 0
0.40625 0.109375 0
0.390625 0.09375 0
0.40625 0.09375 0
0.421875 0.109375 0
0.421875 0.125 0
0.4375 0.109375 0
0.421875 0.09375 0
0.4375 0.09375 0
0.390625 0.078125 0
0.40625 0.078125 0
0.390625 0.0625 0
0.40625 0.0625 0
0.421875 0.078125 0
0.4375 0.078125 0
0.421875 0.0625 0
0.4375 0.0625 0
0.453125 0.109375 0
0.453125 0.125 0
0.46875 0.109375 0
0.453125 0.09375 0
0.46875 0.09375 0
0.484375 0.109375 0
0.484375 0.125 0
0.5 0.109375 0
0.484375 0.09375 0
0.5 0.09375 0
0.453125 0.078125 0
0.46875 0.078125 0
0.453125 0.0625 0
0.46875 0.0625 0
0.484375 0.078125 0
0.5 0.078125 0
0.484375 0.0625 0
0.5 0.0625 0
0.390625 0.046875 0
0.40625 0.046875 0
0.390625 0.03125 0
0.40625 0.03125 0
0.421875 0.046875 0
0.4375 0.046875 0
0.421875 0.03125 0
0.4375 0.03125 0
0.390625 0.015625 0
0.40625 0.015625 0
0.390625 0 0
0.40625 0 0
0.421875 0.015625 0
0.4375 0.015625 0
0.421875 0 0
0.4375 0 0
0.453125 0.046875 0
0.46875 0.046875 0
0.453125 0.03125 0
0.46875 0.03125 0
0.484375 0.046875 0
0.5 0.046875 0
0.484375 0.03125 0
0.5 0.03125 0
0.453125 0.015625 0
0.46875 0.015625 0
0.453125 0 0
0.46875 0 0
0.484375 0.015625 0
0.5 0.015625 0
0.484375 0 0
0.5 0 0
-0.5 -0.015625 0
-0.484375 -0.015625 0
-0.46875 -0.015625 0
-0.5 -0.03125 0
-0.484375 -0.03125 0
-0.46875 -0.03125 0
-0.453125 -0.015625 0
-0.4375 -0.015625 0
-0.453125 -0.03125 0
-0.4375 -0.03125 0
-0.5 -0.0625 0
-0.46875 -0.0625 0
-0.4375 -0.0625 0
-0.421875 -0.015625 0
-0.40625 -0.015625 0
-0.421875 -0.03125 0
-0.40625 -0.03125 0
-0.390625 -0.015625 0
-0.375 -0.015625 0
-0.390625 -0.03125 0
-0.375 -0.03125 0
-0.40625 -0.0625 0
-0.375 -0.0625 0
-0.5 -0.125 0
-0.4375 -0.125 0
-0.375 -0.125 0
-0.359375 -0.015625 0
-0.34375 -0.015625 0
-0.359375 -0.03125 0
-0.34375 -0.03125 0
-0.328125 -0.015625 0
-0.3125 -0.015625 0
-0.328125 -0.03125 0
-0.3125 -0.03125 0
-0.34375 -0.0625 0
-0.3125 -0.0625 0
-0.296875 -0.015625 0
[...]
POINT_DATA 21670
SCALARS P float
LOOKUP_TABLE default
0.0746494
0.0666772
0.0727968
0.0634769
0.0484498
0.0437477
0.0807982
0.0783823
0.0662265
0.0183046
0.0156423
-0.0244525
-0.0185888
0.0266043
-0.0559096
0.0886553
0.0982893
0.115331
0.0901012
0.0966481
0.0934723
0.106118
0.0904698
0.0935403
0.0933747
0.0979494
0.0908306
0.0919324
0.092005
0.0941413
0.0909791
0.0921047
0.0943052
0.0962365
0.0957448
0.0983052
0.0963519
0.0984178
0.102612
0.101383
0.108144
0.100587
0.100281
0.103085
0.100727
0.103248
0.1058
0.105378
0.1088
0.105983
0.109006
0.119467
0.10681
0.140813
0.115034
0.112792
0.123785
0.112149
0.111589
0.115906
0.112385
0.11618
0.120146
0.11941
0.124963
0.120469
0.125347
0.135085
0.13014
0.150158
0.130465
0.129435
0.136794
0.130928
0.137356
0.144135
0.142621
0.15271
0.14482
0.15355
0.0907787
0.0744237
0.0464154
0.0432963
0.116331
0.0923464
-0.0180832
-0.0146526
-0.0970154
-0.0283324
-0.0232078
-0.0885122
-0.0575493
-0.138209
-0.13066
-0.210479
0.176084
0.146208
0.149555
0.104339
0.138439
0.195891
0.208666
0.170719
0.158448
0.1989
0.162767
0.160438
0.174619
0.163816
0.175964
0.188671
0.184809
0.205472
0.190444
0.207878
0.237349
0.293574
0.225717
0.218125
0.250616
0.22914
0.255568
0.281843
0.265462
0.321414
0.288867
0.331719
0.0943767
0.032007
-0.0187352
0.192145
0.0137867
-0.234976
-0.37779
-0.00247427
-0.157621
-0.126855
-0.337608
-0.201679
-0.474282
-0.482434
-0.306383
-0.508572
-0.70662
-0.738543
0.25112
0.266723
0.200406
0.268591
0.324311
0.35777
0.229036
0.102966
0.0999668
0.348053
0.26386
0.368283
0.431662
0.384656
0.459424
0.45703
0.47471
0.502639
0.582756
-0.157261
-0.45105
0.0522071
-0.258562
-0.847508
-0.905056
0.505697
0.665755
-0.0480053
-0.0405781
-0.0461519
-0.0426164
-0.040181
-0.0551477
-0.0362289
-0.0658732
-0.0807421
-0.0837411
-0.0675535
-0.0327737
-0.0321238
-0.014681
-0.0160504
-0.0568527
-0.0466132
-0.0394628
-0.0378862
-0.0570034
-0.0464593
-0.0271111
-0.0237274
-0.0151155
-0.0333586
-0.01561
-0.12462
-0.118182
-0.155657
-0.110818
-0.157383
-0.174344
-0.181989
-0.146933
-0.188399
-0.222682
-0.221141
-0.205454
-0.150341
-0.121401
-0.139464
-0.184917
-0.164618
-0.0984505
-0.0756473
-0.0786981
-0.125175
-0.108316
-0.109292
-0.1431
-0.119095
-0.0928627
-0.0885743
-0.080797
-0.09482
-0.078015
-0.294135
-0.274939
-0.259118
-0.358321
-0.313031
-0.242582
-0.213298
-0.229204
-0.272477
-0.247489
-0.437657
-0.351333
-0.562018
-0.365868
-0.287596
-0.256163
-0.264674
-0.245676
-0.216569
-0.195186
-0.203782
-0.231761
-0.218398
-0.191426
-0.174767
-0.179396
-0.206282
-0.19415
-0.240379
-0.228455
-0.239757
-0.232213
-0.218735
-0.208095
-0.225978
-0.217588
-0.660244
-0.335226
-0.247069
-0.238661
-0.25147
-0.243404
-0.235585
-0.224702
-0.224442
-0.213916
-0.215639
-0.236471
-0.232856
-0.231544
-0.229723
-0.228278
-0.221471
-0.226033
-0.220745
-0.223471
-0.221929
-0.216264
-0.214759
-0.21974
-0.216496
-0.213551
-0.212004
-0.166942
-0.153859
-0.153532
-0.180548
-0.16509
-0.139063
-0.131098
-0.123838
-0.147913
-0.129511
-0.194474
-0.17783
-0.205289
-0.18933
-0.1586
-0.137492
-0.170144
-0.148523
-0.108553
-0.106958
-0.0942656
-0.110818
-0.0931236
-0.0823021
-0.0864175
-0.0736177
-0.077917
-0.066484
-0.115678
-0.0946471
-0.125779
-0.103485
-0.0760714
-0.0616982
-0.08331
-0.0670281
-0.211242
-0.197614
-0.213155
-0.203119
-0.180909
-0.161842
-0.190901
-0.177023
-0.212105
-0.206616
-0.21064
-0.209752
-0.2003
-0.193463
-0.209649
-0.210399
-0.141541
-0.121324
-0.162216
-0.147264
-0.102499
-0.0863727
-0.13288
-0.119707
-0.186393
-0.179216
-0.211767
-0.213081
-0.171846
-0.163948
-0.213211
-0.210652
-0.0683898
-0.0636046
-0.0752238
-0.0735439
-0.0744827
-0.079406
-0.0770446
-0.0780104
-0.0749775
-0.0743279
-0.0727758
-0.0747235
-0.0748532
-0.0766588
-0.074046
-0.0781163
-0.0777555
-0.0659972
-0.0799782
-0.0800477
-0.0761191
-0.0839844
-0.0841109
-0.0909084
-0.0874457
-0.0788669
-0.0897126
-0.0970412
-0.101186
-0.0477462
-0.0206092
-0.0728511
-0.0556754
-0.0606031
-0.0885069
-0.0764147
-0.08568
-0.101886
-0.0985088
-0.0837414
-0.0450018
-0.0341777
-0.027439
-0.0620013
-0.0378319
-0.0684901
-0.0673272
-0.0597291
-0.0584968
-0.0705397
-0.0776478
-0.0632769
-0.0736015
-0.0529629
-0.0507591
-0.0561543
-0.0516087
-0.0555738
-0.0672944
-0.0541261
-0.0641708
-0.0874609
-0.0985104
-0.0880784
-0.104681
-0.108888
-0.116398
-0.120762
-0.133308
-0.0848175
-0.105946
-0.0812481
-0.103556
-0.127547
-0.145967
-0.128038
-0.150807
-0.0741421
-0.0667923
-0.108294
-0.0991738
-0.0653413
-0.0707436
-0.0931638
-0.0914591
-0.155051
-0.14497
-0.203961
-0.19247
-0.134223
-0.124142
-0.176694
-0.15826
-0.0833475
-0.102325
-0.0953934
-0.10569
-0.12531
-0.148629
-0.121585
-0.140499
-0.116783
-0.114337
-0.139657
-0.123869
-0.118081
-0.127422
-0.11364
-0.110384
-0.119611
-0.117824
-0.140049
-0.140027
-0.111287
-0.0911251
-0.10115
-0.133493
-0.121688
-0.157901
-0.161395
-0.167822
-0.175955
-0.156238
-0.143718
-0.173954
-0.162581
-0.0885075
-0.0728713
-0.0744066
-0.106351
-0.0893028
-0.0598043
-0.0499166
-0.0467223
-0.0719836
-0.0556127
-0.126102
-0.105974
-0.144171
-0.121849
-0.0855192
-0.0662069
-0.0985851
-0.076577
-0.168046
-0.17974
-0.158475
-0.171287
-0.181374
-0.172739
-0.175712
-0.170479
-0.139605
-0.150529
-0.113295
-0.119347
-0.156245
-0.154321
-0.124455
-0.12518
-0.155626
-0.133165
-0.156465
-0.136239
-0.108814
-0.0853981
-0.113182
-0.0904075
-0.144508
-0.128469
-0.11997
-0.109365
-0.109027
-0.0891747
-0.0953668
-0.0804974
0.0910321
0.0921386
0.0943445
0.0908506
0.0923766
0.0939026
0.0964177
0.0984595
0.0960749
0.0982473
0.0908213
0.0940188
0.0972163
0.100721
0.103204
0.100554
0.10286
0.105911
0.108904
0.10561
0.10836
0.101859
0.106503
0.0900501
0.0946346
0.0992191
0.112246
0.115992
0.111787
0.115214
0.12022
0.125023
0.119565
0.123916
0.113114
0.119726
0.13051
0.136823
0.129527
0.135139
0.144146
0.152702
0.142624
0.15011
0.130248
0.140771
0.106966
0.114713
0.0821689
0.0795158
0.0672063
0.16274
0.174572
0.160358
0.170605
0.188598
0.205369
0.184663
0.198721
0.158293
0.175816
0.22559
0.250475
0.217892
0.237064
0.281632
0.320981
0.26495
0.292836
0.195473
0.20753
0.116893
0.146354
0.149219
0.137112
0.103619
0.0903452
0.367475
0.430245
0.323126
0.355776
0.455041
0.470757
0.346174
0.258481
0.250183
0.265272
0.266243
0.19852
0.18951
0.226286
0.0903954
0.0954393
0.00136847
0.499959
0.00192598
-0.205389
-0.493879
-0.390296
-0.220184
-0.472596
-0.685573
-0.820836
-0.720228
-0.885972
0.0929059
-0.0196808
0.0469878
-0.0295225
-0.00915616
-0.165046
-0.336689
-0.126238
-0.232795
-0.471553
-0.493503
-0.299348
-0.3659
-0.128205
-0.198574
0.0909594
0.0751989
0.0432478
0.0459019
0.0245976
0.0667965
0.0243129
-0.0270911
0.0101428
-0.0229622
-0.0283068
-0.0693243
-0.078864
-0.106095
-0.0567638
-0.0864365
-0.136594
-0.16339
-0.159268
-0.108624
-0.130812
-0.0606438
-0.0935851
-0.013638
-0.0183001
-0.0464764
-0.074407
-0.0344335
-0.0552289
0.0756377
0.0673297
0.048668
0.0741299
0.0644143
0.0440105
0.0177624
0.02118
-0.00808312
-0.0352655
-0.00358439
-0.0249312
0.0161957
-0.0186552
-0.209663
-0.210559
-0.231172
-0.209167
-0.539705
-0.637288
-0.337898
-0.323381
-0.229374
-0.276284
-0.208145
-0.236789
-0.21606
-0.210334
-0.208732
-0.2075
-0.204467
-0.207952
-0.20794
-0.203776
-0.205051
-0.205454
-0.200246
-0.206508
-0.199428
-0.200236
-0.203022
-0.199826
-0.20359
-0.418086
-0.328426
-0.343121
-0.296412
-0.26412
-0.230935
-0.256638
-0.231562
-0.282237
-0.262417
-0.246895
-0.211368
-0.211213
-0.231003
-0.217932
-0.205183
-0.197515
-0.212593
-0.202185
-0.214089
-0.202041
-0.200683
-0.204111
-0.198156
-0.20003
-0.205942
-0.19649
-0.190197
-0.184425
-0.19205
-0.191793
-0.180995
-0.179824
-0.20937
-0.21277
-0.208827
-0.215774
-0.21841
-0.226018
-0.225921
-0.2385
-0.20879
-0.218314
-0.210371
-0.220979
-0.231235
-0.246294
-0.234666
-0.24941
-0.234725
-0.24297
-0.251968
-0.263993
-0.248583
-0.249136
-0.271692
-0.272204
-0.261396
-0.273733
-0.262563
-0.27158
-0.28016
-0.277905
-0.273916
-0.267366
-0.210404
-0.21985
-0.204473
-0.210999
-0.23181
-0.243716
-0.219203
-0.226869
-0.193668
-0.197146
-0.180739
-0.181654
-0.201673
-0.205407
-0.183163
-0.184673
-0.252563
-0.256495
-0.23142
-0.231413
-0.254038
-0.243831
-0.225941
-0.214322
-0.206582
-0.204146
-0.182239
-0.179805
-0.197453
-0.186111
-0.171008
-0.162211
-0.173073
-0.178289
-0.141652
-0.152492
-0.177879
-0.175329
-0.154581
-0.15667
-0.10919
-0.124796
-0.172424
-0.169788
-0.156029
-0.155389
-0.167866
-0.166739
-0.154521
-0.153654
-0.126422
-0.128047
-0.0802703
-0.0887246
-0.152756
-0.150628
-0.125927
-0.123806
-0.143012
-0.127573
-0.113859
-0.103911
-0.0865907
-0.0739642
-0.242602
-0.228225
-0.263415
-0.244844
-0.206895
-0.180827
-0.217968
-0.185639
-0.265315
-0.242516
-0.251016
-0.2256
-0.211492
-0.175396
-0.193242
-0.156839
-0.152954
-0.126488
-0.15123
-0.117954
-0.104525
-0.0894346
-0.088547
-0.065192
-0.137658
-0.101279
-0.119342
-0.0832271
-0.0685114
-0.0409389
-0.0502875
-0.0216625
-0.225578
-0.200252
-0.196611
-0.173669
-0.169697
-0.136182
-0.146874
-0.117843
-0.170239
-0.15046
-0.146787
-0.131364
-0.12774
-0.103214
-0.111407
-0.0914508
-0.101911
-0.0687101
-0.0881398
-0.0590777
-0.0379188
-0.0104145
-0.0316305
-0.00646935
-0.0780151
-0.0531515
-0.0703256
-0.0492004
-0.0293366
-0.00705174
-0.0293429
-0.0094854
-0.0821079
-0.0813116
-0.0493634
-0.0413184
-0.0839069
-0.0861509
-0.0396424
-0.0415148
-0.019705
-0.00554171
0.0019576
0.0200622
0.00157102
0.00278842
0.0322206
0.0383313
-0.0852989
-0.0805796
-0.0437952
-0.0444604
-0.0730096
-0.0643792
-0.043224
-0.0408806
0.000301432
-0.0035141
0.039048
0.0358828
-0.00709478
-0.0100119
0.0306229
0.0244749
0.013288
0.0328495
0.0159288
0.0351383
0.0478984
0.0580003
0.0506767
0.0621254
0.013397
0.0315362
0.00812319
0.0257318
0.0464462
0.0573644
0.0376358
0.0495397
0.0630224
0.06338
0.0694864
0.072873
0.0597742
0.0529487
0.0719171
0.0662315
0.0645295
0.0683788
0.0554938
0.0585606
0.0684863
0.0640513
0.0583726
0.0545112
-0.104319
-0.0754078
-0.0844743
-0.0650371
-0.0447688
-0.0151221
-0.0424754
-0.0199136
-0.0516066
-0.0264015
0.0120768
0.0309907
-0.00260642
0.0147008
0.0402652
0.0458354
0.0485701
0.0350993
0.0392079
0.0483556
0.0451117
0.0382915
0.037375
0.0196897
0.0246786
-0.0050285
0.00712293
-0.0545283
-0.0673993
-0.0715414
-0.0844975
-0.0758479
-0.0587497
-0.0629711
-0.0366686
-0.0484061
-0.0636467
-0.0565271
-0.0472758
-0.0461456
-0.0411335
-0.0423762
-0.0430426
-0.0274345
-0.0361418
-0.0261379
-0.0127316
-0.00129578
-0.0149128
-0.00368774
-0.026743
-0.00503863
0.00446798
0.00129145
0.0187866
0.017484
-0.00263078
-0.00510653
0.00924204
0.00210142
0.0175579
0.0178638
0.0116273
0.0238572
0.0279456
0.0320743
0.0248398
0.0257045
0.0243125
0.0246354
0.0262511
0.0218132
0.024898
0.0294066
0.02211
0.0230669
0.0245761
0.0228324
0.0170133
0.0179508
0.0059439
0.00402266
0.0139925
0.00982965
0.0223871
0.016749
0.0262097
-0.0104931
-0.00733265
0.00449668
-0.0164254
0.00150327
0.0175429
0.0288828
0.0163047
0.0286033
0.0294035
0.0227517
0.033975
0.0347179
0.0402704
0.0370973
0.0300099
0.0375827
0.0430721
0.0424201
0.0382762
0.0436826
0.0371475
0.0377119
0.0412881
0.0409794
0.043277
0.0395894
0.040991
0.0419765
0.0437637
0.0416712
0.0448738
0.0449488
0.0460636
0.0453372
0.0427461
0.0443873
0.0465603
0.0457171
0.0446606
0.0454709
0.0414511
0.0409408
0.0452682
0.0436328
0.0392791
0.0364715
-0.026711
-0.00503454
-0.0487369
-0.0411618
-0.0334775
-0.0570258
-0.0404079
-0.0206286
-0.0158728
-0.00999151
-0.0268029
-0.0159291
0.0112105
0.0226786
-0.0011386
0.00308796
0.00625346
-0.00727843
-0.000497311
0.0121639
0.0169445
0.0161672
0.00418425
0.00609391
-0.0646581
-0.047353
-0.0700659
-0.0532402
-0.0335624
-0.0229014
-0.0401333
-0.0303956
-0.0712323
-0.0565019
-0.0669078
-0.0558822
-0.0453313
-0.0375808
-0.0478894
-0.0431586
-0.0148458
-0.00929613
-0.0237224
-0.0204034
-0.0068075
-0.00787368
-0.0210381
-0.0254835
-0.0333465
-0.0332084
-0.0422732
-0.0459882
-0.0375051
-0.0453403
-0.0542633
-0.065485
0.025641
0.0307859
0.0328754
0.0338058
0.0260105
0.0273833
0.0352495
0.0352802
0.0270471
0.0253798
0.0176677
0.0168064
0.00500338
0.00179243
0.0144649
0.0116158
-0.00200412
-0.00507287
0.0340832
0.0318916
0.022858
0.0198943
0.0289703
0.0255279
0.0167981
0.0135648
0.00893317
0.00658191
-0.00687771
-0.00769683
0.00441488
0.00208803
-0.00817109
-0.00893861
-0.0118958
-0.0171103
-0.0322141
-0.0388137
-0.0215212
-0.023897
-0.0431035
-0.0441014
-0.0544161
-0.0618504
-0.0766432
-0.0844337
-0.0654251
-0.0644333
-0.0866755
-0.0830443
-0.0241264
-0.0228691
-0.0421324
-0.0382242
-0.0210791
-0.0196682
-0.0336565
-0.0296114
-0.0596024
-0.0524633
-0.0748089
-0.0641371
-0.0447495
-0.0378658
-0.0532263
-0.043601
0.0342818
0.0307404
0.0292798
0.0400014
0.0379495
0.0359323
0.035561
0.0399103
0.0369664
0.0326821
0.0317808
0.0287867
0.0330233
0.0277782
0.022664
0.0257583
0.0171247
0.024346
0.0259719
0.0199403
0.0217432
0.0155905
0.0162113
0.0198944
0.0109969
0.0100037
0.00486908
0.0422343
0.0387309
0.0433049
0.0390766
0.0334799
0.0265076
0.0327964
0.024464
0.0404696
0.0356708
0.0326489
0.027698
0.0289888
0.0201931
0.0212285
0.0127547
0.0183294
0.00969136
0.0144215
0.0033774
0.00141318
-0.00583108
-0.00761898
-0.0173352
0.00927567
-0.00332089
0.00191498
-0.0112202
-0.0165259
-0.0288218
-0.0257847
-0.0401133
0.0126426
0.0195617
0.0105203
-0.00137339
-0.000959706
0.0106463
0.0174821
0.0118653
0.00123156
0.00577975
-0.0108513
0.00174784
-0.0128156
-0.0243191
-0.0274266
-0.0122264
-0.00116655
-0.0125354
-0.0268169
-0.0241111
-0.0385244
-0.0438258
-0.0521781
-0.059639
-0.0438701
-0.0397969
-0.0606976
-0.0559075
-0.0141556
-0.0038399
-0.0330197
-0.0191334
-0.0250154
-0.0475146
-0.0373349
-0.017521
-0.00899775
-0.0114143
-0.0274884
-0.0189886
0.0215732
0.0168422
0.0099474
0.00562915
0.010863
0.00303503
0.000186264
-0.00697062
-0.000760824
-0.00439644
-0.0104425
-0.0129051
-0.00914885
-0.0155485
-0.016565
-0.0218782
-0.00721922
-0.0201498
-0.0164964
-0.0288394
-0.0352396
-0.050901
-0.0437928
-0.0600072
-0.0242502
-0.0357808
-0.0294793
-0.0399191
-0.0501242
-0.0661836
-0.0532621
-0.068597
-0.0192216
-0.0199705
-0.0268073
-0.0254946
-0.022064
-0.0258518
-0.0257191
-0.0276709
-0.0325883
-0.0291517
-0.0359996
-0.0305986
-0.0274791
-0.0275554
-0.0272284
-0.0256846
-0.0319367
-0.0408989
-0.0318775
-0.0389641
-0.0528419
-0.0669531
-0.0491101
-0.0615798
-0.0297549
-0.0347156
-0.0260583
-0.0288849
-0.0427528
-0.053269
-0.0346583
-0.0430225
-0.064691
-0.0738598
-0.0749085
-0.0854232
-0.0762207
-0.0715834
-0.0890242
-0.0848965
-0.0815177
-0.0929179
-0.0837066
-0.0954331
-0.0975582
-0.0942099
-0.10084
-0.0984713
-0.0619759
-0.049921
-0.0746075
-0.0611949
-0.0378953
-0.0270507
-0.0475429
-0.0351317
-0.0840161
-0.0700086
-0.0890771
-0.0753878
-0.0554228
-0.0421802
-0.060695
-0.0472507
-0.0812343
-0.0927396
-0.0745588
-0.0853821
-0.0985938
-0.0972388
-0.0913382
-0.0908827
-0.0646135
-0.0743898
-0.0525418
-0.0610612
-0.0801521
-0.0804736
-0.0664333
-0.0673867
-0.0891304
-0.0765981
-0.0843303
-0.0735705
-0.0627163
-0.0498538
-0.0612351
-0.0495847
-0.0755472
-0.0668429
-0.0639798
-0.0573391
-0.0565021
-0.0465382
-0.0491755
-0.0411703
0.0272701
0.0270149
0.0302641
0.0276136
0.0242096
0.0257913
0.0281788
0.0229314
0.0297868
0.0322928
0.0287671
0.0334642
0.0338139
0.0330533
0.0346719
0.0328785
0.0343609
0.034487
0.0341764
0.0289389
0.0268169
0.0266341
0.029055
0.028664
0.0288007
0.0290778
0.0300189
0.0297144
0.028858
0.028881
0.0295693
0.028593
0.0321234
0.030462
0.0293852
0.0289393
0.029445
0.0307754
0.0298121
0.0336442
0.0327938
0.0328084
0.0342686
0.0339459
0.0340025
0.0336868
0.0338368
0.0335808
0.0334283
0.0332263
0.0329557
0.0332866
0.032794
0.031555
0.0298264
0.0323625
0.0321817
0.0316198
0.0321118
0.0311979
0.0306627
0.0306907
0.0294652
0.0300075
0.0285326
0.0269611
0.0282652
0.0280157
0.0290811
0.0271144
0.02608
0.0256358
0.0274433
0.0283866
0.024784
0.0280283
0.0286348
0.0264044
0.0267894
0.0248278
0.0246839
0.0261136
0.0230233
0.022739
0.0206671
0.0228443
0.0222611
0.0215799
0.0238141
0.0204523
0.0187615
0.0171596
0.0198784
0.0225527
0.0189939
0.0161619
0.0157266
0.0185066
0.0268665
0.00517815
0.0121432
0.012609
-0.0051796
0.00449787
0.0182547
0.0226866
0.0226729
0.0116309
0.0168743
0.0283267
0.0312077
0.0318004
0.0329426
0.0293918
0.0314215
0.0337362
0.0341116
0.0339151
0.0343317
0.0337494
0.0334755
0.0332408
0.0317644
0.0327503
0.0326414
0.0322956
0.0312167
0.0307171
0.0260436
0.0274973
0.0200936
0.0230686
0.0242447
0.0267704
0.0243107
0.0204745
0.020073
0.0294594
0.0300425
0.031593
0.0297338
0.0273594
0.0268737
0.0291055
0.0284638
0.0262514
0.0256013
0.0238389
0.0232124
0.0193386
0.0186862
0.0226462
0.0221171
0.0182827
0.0179638
-0.0178574
-0.0120841
-0.0106968
-0.0244717
-0.0162139
-0.00463904
-0.0308505
-0.0216495
-0.0359442
-0.0270851
-0.0143452
0.00323257
0.00856404
-0.00591923
-0.0022533
-0.0390832
-0.0296655
-0.0397457
-0.032246
-0.0209334
-0.0380526
-0.0315211
-0.0342885
-0.0287558
-0.026004
-0.0265897
-0.021068
-0.0242525
-0.0212025
-0.0141357
-0.0100275
-0.00816596
-0.00408627
-0.00806295
-0.0131694
-0.0142903
-0.0208664
-0.017501
-0.0181301
-0.0205137
-0.0226482
-0.0263385
0.0127192
0.0149367
0.0184839
0.0157994
0.0101245
0.0103353
0.015572
0.0147105
0.00946918
0.00821269
0.00315537
0.00428938
0.00376955
-0.00234613
-0.00377758
0.00224868
0.00059442
-0.00602732
-0.00816649
0.0137763
0.0132257
0.00717657
0.00676717
0.0130951
0.0130344
0.00689249
0.00712314
-0.000521933
-0.000808092
-0.00944267
-0.00961961
-0.000446764
0.000147888
-0.00894336
-0.00785041
-0.00954611
-0.0121092
-0.0171232
-0.0209994
-0.0152553
-0.0180193
-0.025263
-0.0288424
-0.0247742
-0.0301412
-0.0320611
-0.0390657
-0.0357485
-0.0403714
-0.0462207
-0.0520906
-0.0195858
-0.0197029
-0.0308494
-0.0309504
-0.0186187
-0.016826
-0.0293495
-0.0266204
-0.0429676
-0.0430569
-0.0553959
-0.0554674
-0.0408051
-0.036907
-0.0524427
-0.047174
0.033556
0.0332763
0.0329774
0.0325653
0.0328756
0.0322478
0.0319357
0.0310207
0.031874
0.0312323
0.0301024
0.0292357
0.0303057
0.0290757
0.0280785
0.0266122
0.0313529
0.0301688
0.029799
0.0282778
0.0286882
0.0269205
0.0264719
0.0243937
0.0275352
0.0256884
0.0248079
0.0226485
0.0235417
0.0210977
0.020126
0.0172339
0.0277125
0.0267348
0.024836
0.0238467
0.0254601
0.0238233
0.0225076
0.0207142
0.0214615
0.020514
0.0174705
0.0165902
0.0191205
0.0171862
0.0151764
0.0131647
0.0217745
0.0192886
0.0184218
0.0156103
0.0163509
0.012944
0.0122559
0.00831916
0.0146848
0.0115978
0.0105414
0.0072799
0.00788219
0.00346403
0.0033114
-0.00147935
0.0248793
0.0225905
0.0220452
0.019427
0.0201112
0.0175562
0.0165612
0.0135354
0.0183511
0.0152941
0.0139619
0.0102998
0.0119367
0.00835589
0.00626002
0.00192976
0.0150934
0.0129345
0.0105513
0.00788111
0.0113664
0.0105944
0.00575159
0.00447924
0.00476676
0.00148055
-0.00245725
-0.00650818
-0.00123695
-0.00296245
-0.00973949
-0.0115969
0.0090436
0.00462889
0.00374658
-0.00150684
-0.00028275
-0.00557221
-0.00742174
-0.0138283
-0.0017529
-0.00784882
-0.00723731
-0.0140841
-0.0148079
-0.0224025
-0.0220116
-0.0307355
-0.0109384
-0.0158537
-0.0203142
-0.0261897
-0.0196339
-0.0216224
-0.0306092
-0.0328046
-0.0300853
-0.0369775
-0.0395677
-0.0474306
-0.0420589
-0.0444506
-0.0531211
-0.0556562
0.0127212
0.0119617
0.00709563
0.00659434
0.010622
0.00865045
0.00548245
0.00371364
0.000572057
0.000527547
-0.0067878
-0.00613892
-0.000150799
-0.00151184
-0.00613661
-0.00686155
0.0060369
0.00274312
0.00127841
-0.00187173
-0.0013262
-0.00632576
-0.00585387
-0.0108529
-0.00356964
-0.00637873
-0.00832821
-0.0105862
-0.010065
-0.014825
-0.0137595
-0.0180303
-0.0148714
-0.0132533
-0.023484
-0.0206121
-0.0123066
-0.0121595
-0.0184484
-0.0171371
-0.0323217
-0.027958
-0.0409222
-0.0349249
-0.024359
-0.0215852
-0.0299377
-0.02585
-0.0128117
-0.0143062
-0.0166865
-0.0172356
-0.0167581
-0.0203003
-0.0188513
-0.0215127
-0.0196953
-0.0192028
-0.0223609
-0.020462
-0.0199892
-0.0216647
-0.0206822
-0.0209025
-0.0124471
-0.0198516
-0.0170956
-0.0247744
-0.0285404
-0.0381774
-0.0338953
-0.0440795
-0.0209031
-0.0285087
-0.0236377
-0.0307975
-0.0376459
-0.0479024
-0.0395036
-0.0493195
-0.0479467
-0.0565905
-0.0544128
-0.0635068
-0.0627396